version 2
run General-0-20171226-13:53:58-4576
attr configname General
attr datetime 20171226-13:53:58
attr experiment General
attr inifile omnetpp.ini
attr iterationvars ""
attr iterationvarsf ""
attr measurement ""
attr network StopWait
attr processid 4576
attr repetition 0
attr replication #0
attr resultdir results
attr runnumber 0
attr seedset 0

vector 0 StopWait.receiver "" ETV
0	3	21.00134	1
0	7	36.920410091316	2
0	11	55.383412720732	3
0	15	66.403442454138	4
0	19	77.913776391798	4
0	21	79.914886391798	5
0	25	144.212531990364	6
0	29	159.26774425662	6
0	31	161.27109425662	6
0	33	163.27444425662	6
0	35	165.27779425662	7
0	39	211.230335973599	8
0	43	241.346761146347	9
0	47	318.251338529184	10
0	51	330.630737721718	11
0	55	333.147465910479	12
0	59	336.24106952048	12
0	61	338.24186952048	12
0	63	340.24266952048	13
0	67	350.997815355598	14
0	73	363.179683819259	15
0	75	365.181743819259	16
0	79	367.185873819259	17
0	83	424.360925417754	17
0	85	426.362985417754	18
0	89	433.275125318778	19
0	93	435.276045318778	19
0	95	437.276965318778	19
0	97	439.277885318778	19
0	99	441.278805318778	19
0	101	443.279725318778	20
0	105	456.72563004185	21
0	109	468.27219625798	21
0	113	470.27441625798	21
0	115	472.27663625798	21
0	117	474.27885625798	21
0	119	476.28107625798	21
0	121	478.28329625798	21
0	123	480.28551625798	21
0	125	482.28773625798	22

